{
  "formula": 0,
  "nombre": 1,
  "cas": 2,
  "wt": 3,
  "tfp": 4,
  "tbp": 5,
  "tc": 6,
  "pc": 7,
  "vc": 8,
  "zc": 9,
  "w": 10,
  "delhform": 11,
  "delgform": 12,
  "delhb": 13,
  "delhf": 14,
  "vliq": 15,
  "tliq": 16,
  "dipole": 17,
  "cptmin": 18,
  "cptmax": 19,
  "cpa0": 20,
  "cpa1": 21,
  "cpa2": 22,
  "cpa3": 23,
  "cpa4": 24,
  "cpig": 25,
  "cpliq": 26,
  "anta": 27,
  "antb": 28,
  "antc": 29,
  "antpvmin": 30,
  "anttmin": 31,
  "antpvmax": 32,
  "anttmax": 33,
  "ec2a": 34,
  "ec2b": 35,
  "ec2c": 36,
  "ec2tc": 37,
  "ec2t0": 38,
  "ec2n": 39,
  "ec2e": 40,
  "ec2f": 41,
  "ec2pvmin": 42,
  "ec2tmin": 43,
  "ec2pvmax": 44,
  "ec2tmax": 45,
  "wagtc": 46,
  "waga": 47,
  "wagb": 48,
  "wagc": 49,
  "wagd": 50,
  "wagpc": 51,
  "wagpvmin": 52,
  "wagtmin": 53,
  "wagpvmax": 54,
  "wagtmax": 55,
  "masamolar": 3,
  "pesomolecular": 3,
  "pm": 3,
  "temperaturafusion": 4,
  "temperaturaebullicion": 5,
  "temperaturacritica": 6,
  "presioncritica": 7,
  "volumencritico": 8,
  "compresibilidadcritica": 9,
  "factoracentrico": 10,
  "entalpiaformacion": 11,
  "gibbsformacion": 12,
  "entalpiavaporizacion": 13,
  "calorlatente": 13,
  "entalpiafusion": 14,
  "volumenliquido": 15,
  "temperaturaliquido": 16,
  "dipolo": 17,
  "cptemperaturaminima": 18,
  "cptemperaturamaxima": 19,
  "cpgasideal": 25,
  "cpliquido": 26,
  "antoinea": 27,
  "antoineb": 28,
  "antoinec": 29,
  "molarmass": 3,
  "freezingtemperature": 4,
  "boilingtemperature": 5,
  "criticaltemperature": 6,
  "criticalpressure": 7,
  "criticalvolume": 8,
  "criticalcompressibility": 9,
  "accentricfactor": 10,
  "formationenthalpy": 11,
  "formationgibbs": 12,
  "vaporizationenthalpy": 13,
  "fusionenthalpy": 14,
  "liquidvolume": 15,
  "liquidtemperature": 16,
  "cpminimumtemperature": 18,
  "cpmaximumtemperature": 19,
  "idealgascp": 25,
  "liquidcp": 26,
  "cp": [
    20,
    21,
    22,
    23,
    24
  ],
  "ant": [
    27,
    28,
    29
  ],
  "antoine": [
    27,
    28,
    29
  ],
  "ec2": [
    34,
    35,
    36,
    37,
    38,
    39,
    40,
    41
  ],
  "ecuacion2": [
    34,
    35,
    36,
    37,
    38,
    39,
    40,
    41
  ],
  "wag": [
    46,
    47,
    48,
    49,
    50
  ],
  "wagner": [
    46,
    47,
    48,
    49,
    50
  ]
}
